ITEM: TIMESTEP
10490
ITEM: NUMBER OF ATOMS
1220
ITEM: BOX BOUNDS pp ss pp
0 14.0296
-71.7376 71.8692
0 9.92043
ITEM: ATOMS id type xs ys zs 
213 1 0.180381 -0.00287629 0.208488 
232 1 0.180382 0.0170651 0.208491 
217 1 0.180381 0.00694198 0.458489 
231 1 0.0137147 0.00694198 0.291822 
486 1 0.0137143 -0.00287635 0.541821 
214 1 0.347048 -0.00287634 0.375154 
215 1 0.347049 0.0170651 0.375157 
35 1 0.347048 0.00694198 0.125155 
34 1 0.513715 0.00694198 0.291822 
26 1 0.680381 -0.00287629 0.208488 
205 1 0.513714 -0.00287635 0.541821 
218 1 0.513716 0.0170651 0.541824 
39 1 0.513716 0.0268223 0.291827 
36 1 0.680382 0.0170651 0.208491 
30 1 0.680381 0.00694198 0.458489 
1 1 0.847048 0.00694198 0.125155 
27 1 0.847048 -0.00287634 0.375154 
28 1 0.847049 0.0170651 0.375157 
494 1 1.01372 0.0170651 0.541824 
235 1 1.01372 0.0268223 0.291827 
233 1 0.180384 0.036862 0.208497 
234 1 0.180383 0.0268224 0.458493 
239 1 0.180386 0.0467999 0.458501 
45 1 0.34705 0.0268224 0.125159 
253 1 0.0137192 0.0467999 0.291834 
495 1 0.0137179 0.036862 0.54183 
49 1 0.347052 0.0467999 0.125167 
236 1 0.347051 0.036862 0.375163 
48 1 0.513719 0.0467999 0.291834 
219 1 0.513718 0.036862 0.54183 
37 1 0.680384 0.036862 0.208497 
38 1 0.680383 0.0268224 0.458493 
43 1 0.680386 0.0467999 0.458501 
2 1 0.84705 0.0268224 0.125159 
3 1 0.847052 0.0467999 0.125167 
40 1 0.847051 0.036862 0.375163 
254 1 0.180387 0.0567832 0.208505 
255 1 0.18039 0.0767221 0.208515 
257 1 0.0137222 0.0667494 0.291844 
256 1 0.180389 0.0667494 0.45851 
59 1 0.347056 0.0667494 0.125176 
237 1 0.347054 0.0567832 0.375172 
258 1 0.347057 0.0767221 0.375182 
53 1 0.513722 0.0667494 0.291844 
51 1 0.68039 0.0767221 0.208515 
52 1 0.680389 0.0667494 0.45851 
240 1 0.513721 0.0567831 0.541839 
241 1 0.513724 0.0767221 0.541849 
505 1 1.01372 0.0767221 0.541849 
50 1 0.680387 0.0567832 0.208505 
4 1 0.847056 0.0667494 0.125176 
41 1 0.847054 0.0567832 0.375172 
54 1 0.847057 0.0767221 0.375182 
504 1 1.01372 0.0567831 0.541839 
276 1 0.180394 0.0966635 0.208525 
261 1 0.180392 0.0866923 0.45852 
278 1 0.180396 0.106634 0.45853 
63 1 0.347059 0.0866923 0.125187 
73 1 0.347063 0.106634 0.125196 
259 1 0.347061 0.0966635 0.375192 
62 1 0.513726 0.0866923 0.291853 
67 1 0.51373 0.106634 0.291863 
262 1 0.513728 0.0966635 0.541859 
66 1 0.680396 0.106634 0.45853 
57 1 0.680392 0.0866923 0.45852 
279 1 1.01373 0.106634 0.291863 
514 1 1.01373 0.0966635 0.541859 
275 1 1.01373 0.0866923 0.291853 
64 1 0.680394 0.0966635 0.208525 
5 1 0.847059 0.0866923 0.125187 
6 1 0.847063 0.106634 0.125196 
55 1 0.847061 0.0966635 0.375192 
277 1 0.180399 0.116605 0.208535 
298 1 0.180404 0.136547 0.208545 
283 1 0.180401 0.126576 0.45854 
77 1 0.347068 0.126576 0.125206 
281 1 0.347071 0.136547 0.375211 
280 1 0.347065 0.116605 0.375201 
295 1 0.013732 0.116605 0.0418683 
76 1 0.513735 0.126576 0.291873 
71 1 0.680401 0.126576 0.45854 
78 1 0.680404 0.136547 0.208545 
74 1 0.513732 0.116605 0.0418683 
75 1 0.513738 0.136547 0.0418781 
297 1 1.01373 0.126576 0.291873 
65 1 0.680399 0.116605 0.208535 
7 1 0.847068 0.126576 0.125206 
68 1 0.847065 0.116605 0.375201 
69 1 0.847071 0.136547 0.375211 
296 1 1.01374 0.136547 0.0418781 
299 1 0.180412 0.156489 0.208557 
300 1 0.180408 0.146518 0.458551 
305 1 0.180416 0.16646 0.458565 
87 1 0.347074 0.146518 0.125218 
319 1 0.0137491 0.16646 0.291898 
91 1 0.347083 0.16646 0.125232 
302 1 0.347078 0.156489 0.375224 
81 1 0.513741 0.146518 0.291884 
90 1 0.513749 0.16646 0.291898 
79 1 0.680412 0.156489 0.208557 
80 1 0.680408 0.146518 0.458551 
88 1 0.513745 0.156489 0.0418908 
85 1 0.680416 0.16646 0.458565 
301 1 1.01374 0.146518 0.291884 
8 1 0.847074 0.146518 0.125218 
9 1 0.847083 0.16646 0.125232 
82 1 0.847078 0.156489 0.375224 
317 1 1.01375 0.156489 0.0418908 
320 1 0.180421 0.176431 0.208574 
321 1 0.18043 0.196373 0.208594 
322 1 0.180425 0.186402 0.458583 
303 1 0.347087 0.176431 0.37524 
318 1 0.0137538 0.176431 0.041907 
339 1 0.0137639 0.196373 0.0419271 
324 1 0.347097 0.196373 0.375261 
101 1 0.347092 0.186402 0.12525 
95 1 0.513759 0.186402 0.291917 
92 1 0.680421 0.176431 0.208574 
94 1 0.680425 0.186402 0.458583 
89 1 0.513754 0.176431 0.041907 
102 1 0.513764 0.196373 0.0419271 
323 1 1.01376 0.186402 0.291917 
93 1 0.68043 0.196373 0.208594 
10 1 0.847092 0.186402 0.12525 
83 1 0.847087 0.176431 0.37524 
96 1 0.847097 0.196373 0.375261 
342 1 0.180441 0.216314 0.208617 
327 1 0.180436 0.206343 0.458605 
341 1 0.0137692 0.206343 0.291939 
344 1 0.180447 0.226285 0.458629 
345 1 0.0137803 0.226285 0.291962 
340 1 0.0137748 0.216314 0.0419504 
105 1 0.347103 0.206343 0.125272 
325 1 0.347108 0.216314 0.375283 
104 1 0.513769 0.206343 0.291939 
115 1 0.347114 0.226285 0.125296 
109 1 0.51378 0.226285 0.291962 
103 1 0.513775 0.216314 0.0419504 
106 1 0.680441 0.216314 0.208617 
99 1 0.680436 0.206343 0.458605 
11 1 0.847103 0.206343 0.125272 
97 1 0.847108 0.216314 0.375283 
108 1 0.680447 0.226285 0.458629 
12 1 0.847114 0.226285 0.125296 
343 1 0.180452 0.236256 0.208642 
363 1 0.0137911 0.246227 0.291988 
349 1 0.180458 0.246227 0.458655 
364 1 0.180463 0.256198 0.208667 
361 1 0.0137857 0.236256 0.041975 
362 1 0.0137965 0.256198 0.0420005 
346 1 0.347119 0.236256 0.375308 
119 1 0.347124 0.246227 0.125321 
118 1 0.513791 0.246227 0.291988 
347 1 0.34713 0.256198 0.375334 
116 1 0.513786 0.236256 0.041975 
117 1 0.513796 0.256198 0.0420005 
107 1 0.680452 0.236256 0.208642 
13 1 0.847124 0.246227 0.125321 
110 1 0.847119 0.236256 0.375308 
113 1 0.680458 0.246227 0.458655 
120 1 0.680463 0.256198 0.208667 
111 1 0.84713 0.256198 0.375334 
365 1 0.180473 0.27614 0.208692 
367 1 0.0138015 0.266169 0.292013 
366 1 0.180468 0.266169 0.45868 
371 1 0.180478 0.286111 0.458705 
385 1 0.0138112 0.286111 0.292038 
383 1 0.0138062 0.27614 0.0420258 
368 1 0.34714 0.27614 0.375359 
123 1 0.513801 0.266169 0.292013 
129 1 0.347135 0.266169 0.125347 
132 1 0.513811 0.286111 0.292038 
133 1 0.347144 0.286111 0.125372 
130 1 0.513806 0.27614 0.0420258 
121 1 0.680473 0.27614 0.208692 
122 1 0.680468 0.266169 0.45868 
14 1 0.847135 0.266169 0.125347 
124 1 0.84714 0.27614 0.375359 
15 1 0.847144 0.286111 0.125372 
127 1 0.680478 0.286111 0.458705 
386 1 0.180483 0.296082 0.208718 
388 1 0.180488 0.306053 0.45873 
389 1 0.013821 0.306053 0.292064 
387 1 0.180494 0.316024 0.208743 
384 1 0.013816 0.296082 0.0420511 
405 1 0.0138269 0.316024 0.0420765 
143 1 0.347154 0.306053 0.125397 
369 1 0.347149 0.296082 0.375385 
137 1 0.513821 0.306053 0.292064 
390 1 0.34716 0.316024 0.37541 
131 1 0.513816 0.296082 0.0420511 
144 1 0.513827 0.316024 0.0420765 
134 1 0.680483 0.296082 0.208718 
136 1 0.680488 0.306053 0.45873 
16 1 0.847154 0.306053 0.125397 
125 1 0.847149 0.296082 0.375385 
135 1 0.680494 0.316024 0.208743 
138 1 0.84716 0.316024 0.37541 
393 1 0.1805 0.325995 0.458756 
408 1 0.180507 0.335966 0.208769 
407 1 0.0138335 0.325995 0.292089 
410 1 0.180515 0.345937 0.458783 
411 1 0.0138481 0.345937 0.292117 
406 1 0.0138404 0.335966 0.0421027 
147 1 0.347167 0.325995 0.125423 
391 1 0.347174 0.335966 0.375436 
146 1 0.513833 0.325995 0.292089 
157 1 0.347181 0.345937 0.12545 
151 1 0.513848 0.345937 0.292117 
145 1 0.51384 0.335966 0.0421027 
141 1 0.6805 0.325995 0.458756 
148 1 0.680507 0.335966 0.208769 
17 1 0.847167 0.325995 0.125423 
139 1 0.847174 0.335966 0.375436 
150 1 0.680515 0.345937 0.458783 
18 1 0.847181 0.345937 0.12545 
409 1 0.180523 0.355908 0.208798 
415 1 0.18053 0.365879 0.458813 
429 1 0.0138636 0.365879 0.292146 
430 1 0.18054 0.37585 0.208828 
427 1 0.0138558 0.355908 0.0421313 
428 1 0.0138718 0.375849 0.042162 
160 1 0.513864 0.365879 0.292146 
161 1 0.347197 0.365879 0.12548 
412 1 0.347189 0.355908 0.375465 
413 1 0.347204 0.37585 0.375496 
158 1 0.513856 0.355908 0.0421313 
159 1 0.513872 0.375849 0.042162 
149 1 0.680523 0.355908 0.208798 
19 1 0.847197 0.365879 0.12548 
152 1 0.847189 0.355908 0.375465 
155 1 0.68053 0.365879 0.458813 
153 1 0.847204 0.37585 0.375496 
162 1 0.68054 0.37585 0.208828 
431 1 0.180559 0.395792 0.208858 
432 1 0.180547 0.385821 0.458845 
449 1 0.0138874 0.395791 0.0421945 
433 1 0.0138799 0.38582 0.292178 
437 1 0.180561 0.405765 0.45888 
451 1 0.0138948 0.405758 0.292212 
165 1 0.51388 0.38582 0.292178 
171 1 0.347213 0.385821 0.125511 
172 1 0.513887 0.395791 0.0421945 
434 1 0.347215 0.395792 0.375531 
174 1 0.513895 0.405758 0.292212 
175 1 0.347229 0.405765 0.125543 
163 1 0.680559 0.395792 0.208858 
20 1 0.847213 0.385821 0.125511 
164 1 0.680547 0.385821 0.458845 
166 1 0.847215 0.395792 0.375531 
21 1 0.847229 0.405765 0.125543 
169 1 0.680561 0.405765 0.45888 
450 1 0.0139021 0.415733 0.0422285 
452 1 0.1806 0.415732 0.208876 
454 1 0.180553 0.425718 0.45892 
455 1 0.0139093 0.42568 0.292245 
453 1 0.180767 0.435665 0.208775 
469 1 0.013916 0.435683 0.0422614 
173 1 0.513902 0.415733 0.0422285 
179 1 0.513909 0.42568 0.292245 
185 1 0.347266 0.425718 0.12557 
435 1 0.347205 0.415732 0.375581 
186 1 0.513916 0.435683 0.0422614 
456 1 0.347066 0.435665 0.375748 
22 1 0.847266 0.425718 0.12557 
167 1 0.847205 0.415732 0.375581 
176 1 0.6806 0.415732 0.208876 
178 1 0.680553 0.425718 0.45892 
177 1 0.680767 0.435665 0.208775 
180 1 0.847066 0.435665 0.375748 
459 1 0.180373 0.445716 0.458818 
471 1 0.0139229 0.445517 0.292276 
472 1 0.18145 0.455548 0.207632 
470 1 0.0139282 0.455704 0.0422941 
474 1 0.179701 0.465883 0.455334 
475 1 0.0139377 0.465039 0.292307 
188 1 0.513923 0.445517 0.292276 
189 1 0.347472 0.445716 0.125736 
457 1 0.346408 0.455548 0.376952 
187 1 0.513928 0.455704 0.0422941 
193 1 0.513938 0.465039 0.292307 
198 1 0.348167 0.465883 0.129286 
23 1 0.847472 0.445716 0.125736 
181 1 0.846408 0.455548 0.376952 
183 1 0.680373 0.445716 0.458818 
190 1 0.68145 0.455548 0.207632 
24 1 0.848167 0.465883 0.129286 
192 1 0.679701 0.465883 0.455334 
473 1 0.178824 0.475238 0.199376 
481 1 0.013939 0.476315 0.0423339 
483 1 0.0139558 0.484363 0.292341 
479 1 0.196406 0.486736 0.424909 
614 1 0.138965 0.494712 0.160308 
199 1 0.513939 0.476315 0.0423339 
476 1 0.349067 0.475237 0.385265 
613 1 0.331501 0.486738 0.159808 
201 1 0.513956 0.484363 0.292341 
693 1 0.638965 0.494712 0.160308 
694 1 0.388965 0.494711 0.424424 
191 1 0.678824 0.475238 0.199376 
194 1 0.849067 0.475237 0.385265 
197 1 0.696406 0.486736 0.424909 
691 1 0.831501 0.486738 0.159808 
926 1 0.888965 0.494711 0.424424 
703 1 0.263963 0.50506 0.292387 
700 1 0.0815083 0.502685 0.42492 
617 1 0.263968 0.513108 0.0423927 
618 1 0.0990903 0.514185 0.199453 
704 1 0.263978 0.524384 0.292413 
717 1 0.0982067 0.523539 0.45543 
692 1 0.446414 0.502686 0.15982 
927 1 0.581508 0.502685 0.42492 
698 1 0.59909 0.514185 0.199453 
705 1 0.428847 0.514185 0.385343 
707 1 0.429742 0.52354 0.129382 
943 1 0.598207 0.523539 0.45543 
925 1 0.946414 0.502686 0.15982 
930 1 0.763963 0.50506 0.292387 
697 1 0.763968 0.513108 0.0423927 
931 1 0.763978 0.524384 0.292413 
932 1 0.928847 0.514185 0.385343 
934 1 0.929742 0.52354 0.129382 
619 1 0.263982 0.533719 0.042424 
620 1 0.0964612 0.533875 0.207763 
623 1 0.263994 0.553739 0.0424533 
624 1 0.0971432 0.553757 0.208966 
721 1 0.263988 0.543906 0.29244 
718 1 0.0975372 0.543706 0.458978 
709 1 0.596461 0.533875 0.207763 
710 1 0.431503 0.533875 0.377083 
708 1 0.430438 0.543707 0.125897 
714 1 0.597143 0.553757 0.208966 
723 1 0.430844 0.553757 0.37594 
944 1 0.597537 0.543706 0.458978 
699 1 0.763982 0.533719 0.042424 
936 1 0.931503 0.533875 0.377083 
713 1 0.763994 0.553739 0.0424533 
935 1 0.930438 0.543707 0.125897 
947 1 0.763988 0.543906 0.29244 
949 1 0.930844 0.553757 0.37594 
722 1 0.263999 0.563743 0.292469 
625 1 0.264004 0.57369 0.0424839 
626 1 0.0973066 0.57369 0.209131 
739 1 0.264009 0.583665 0.292499 
735 1 0.0973551 0.563704 0.459143 
736 1 0.0973433 0.583658 0.459168 
725 1 0.430643 0.563704 0.125793 
726 1 0.430675 0.583658 0.125831 
727 1 0.597307 0.57369 0.209131 
728 1 0.430702 0.57369 0.375837 
961 1 0.597355 0.563704 0.459143 
962 1 0.597343 0.583658 0.459168 
948 1 0.763999 0.563743 0.292469 
951 1 0.930643 0.563704 0.125793 
715 1 0.764004 0.57369 0.0424839 
952 1 0.930675 0.583658 0.125831 
953 1 0.930702 0.57369 0.375837 
965 1 0.764009 0.583665 0.292499 
629 1 0.264014 0.593632 0.0425148 
630 1 0.0973414 0.593631 0.209178 
631 1 0.264022 0.613573 0.0425447 
632 1 0.0973541 0.613573 0.209211 
740 1 0.264018 0.603603 0.29253 
753 1 0.097351 0.603602 0.459197 
732 1 0.597341 0.593631 0.209178 
741 1 0.430686 0.593631 0.375852 
743 1 0.430685 0.603602 0.125863 
745 1 0.597354 0.613573 0.209211 
746 1 0.43069 0.613573 0.375879 
979 1 0.597351 0.603602 0.459197 
731 1 0.764014 0.593632 0.0425148 
967 1 0.930686 0.593631 0.375852 
733 1 0.764022 0.613573 0.0425447 
966 1 0.764018 0.603603 0.29253 
969 1 0.930685 0.603602 0.125863 
971 1 0.93069 0.613573 0.375879 
757 1 0.264025 0.623544 0.292559 
635 1 0.264029 0.633515 0.042572 
636 1 0.0973622 0.633515 0.209238 
758 1 0.264033 0.643486 0.292584 
754 1 0.0973586 0.623544 0.459225 
771 1 0.097366 0.643486 0.459251 
744 1 0.430692 0.623544 0.125892 
750 1 0.597362 0.633515 0.209238 
759 1 0.430696 0.633515 0.375905 
761 1 0.430699 0.643486 0.125918 
980 1 0.597359 0.623544 0.459225 
997 1 0.597366 0.643486 0.459251 
970 1 0.930692 0.623544 0.125892 
983 1 0.764025 0.623544 0.292559 
749 1 0.764029 0.633515 0.042572 
984 1 0.764033 0.643486 0.292584 
985 1 0.930696 0.633515 0.375905 
987 1 0.930699 0.643486 0.125918 
637 1 0.264036 0.653457 0.0425962 
638 1 0.0973693 0.653457 0.209263 
641 1 0.264043 0.673399 0.0426183 
642 1 0.0973768 0.673399 0.209285 
775 1 0.26404 0.663428 0.292607 
772 1 0.0973729 0.663428 0.459274 
763 1 0.597369 0.653457 0.209263 
764 1 0.430703 0.653457 0.37593 
762 1 0.430706 0.663428 0.125941 
768 1 0.597377 0.673399 0.209285 
777 1 0.43071 0.673399 0.375952 
998 1 0.597373 0.663428 0.459274 
751 1 0.764036 0.653457 0.0425962 
989 1 0.930703 0.653457 0.37593 
767 1 0.764043 0.673399 0.0426183 
988 1 0.930706 0.663428 0.125941 
1001 1 0.76404 0.663428 0.292607 
1003 1 0.93071 0.673399 0.375952 
776 1 0.264048 0.68337 0.292629 
643 1 0.264052 0.693341 0.0426402 
644 1 0.0973853 0.693341 0.209307 
793 1 0.264056 0.703312 0.292651 
789 1 0.0973809 0.68337 0.459296 
790 1 0.0973898 0.703312 0.459318 
779 1 0.430714 0.68337 0.125963 
780 1 0.430723 0.703312 0.125985 
781 1 0.597385 0.693341 0.209307 
782 1 0.430719 0.693341 0.375974 
1015 1 0.597381 0.68337 0.459296 
1016 1 0.59739 0.703312 0.459318 
1002 1 0.764048 0.68337 0.292629 
1005 1 0.930714 0.68337 0.125963 
769 1 0.764052 0.693341 0.0426402 
1006 1 0.930723 0.703312 0.125985 
1007 1 0.930719 0.693341 0.375974 
1019 1 0.764056 0.703312 0.292651 
647 1 0.264061 0.713283 0.0426625 
648 1 0.0973944 0.713283 0.209329 
650 1 0.0974034 0.733225 0.209352 
794 1 0.264066 0.723254 0.292674 
649 1 0.26407 0.733225 0.042685 
807 1 0.0973991 0.723254 0.459341 
786 1 0.597394 0.713283 0.209329 
795 1 0.430728 0.713283 0.375996 
797 1 0.430732 0.723254 0.126007 
799 1 0.597403 0.733225 0.209352 
800 1 0.430737 0.733225 0.376018 
1033 1 0.597399 0.723254 0.459341 
785 1 0.764061 0.713283 0.0426625 
1021 1 0.930728 0.713283 0.375996 
1020 1 0.764066 0.723254 0.292674 
1023 1 0.930732 0.723254 0.126007 
1025 1 0.930737 0.733225 0.376018 
787 1 0.76407 0.733225 0.042685 
811 1 0.264074 0.743196 0.292696 
808 1 0.0974076 0.743196 0.459363 
654 1 0.0974112 0.753167 0.209374 
812 1 0.264081 0.763138 0.292719 
653 1 0.264078 0.753167 0.0427075 
825 1 0.0974146 0.763138 0.459386 
798 1 0.430741 0.743196 0.12603 
1034 1 0.597408 0.743196 0.459363 
804 1 0.597411 0.753167 0.209374 
813 1 0.430745 0.753167 0.376041 
815 1 0.430748 0.763138 0.126053 
1051 1 0.597415 0.763138 0.459386 
1024 1 0.930741 0.743196 0.12603 
1037 1 0.764074 0.743196 0.292696 
1038 1 0.764081 0.763138 0.292719 
1039 1 0.930745 0.753167 0.376041 
1041 1 0.930748 0.763138 0.126053 
803 1 0.764078 0.753167 0.0427075 
656 1 0.0974177 0.773108 0.209397 
660 1 0.097423 0.79305 0.209419 
829 1 0.264087 0.783079 0.292742 
655 1 0.264084 0.773109 0.0427307 
659 1 0.26409 0.79305 0.0427531 
826 1 0.0974205 0.783079 0.459409 
817 1 0.597418 0.773108 0.209397 
816 1 0.430754 0.783079 0.126075 
818 1 0.430751 0.773109 0.376064 
822 1 0.597423 0.79305 0.209419 
831 1 0.430756 0.79305 0.376086 
1052 1 0.597421 0.783079 0.459409 
1042 1 0.930754 0.783079 0.126075 
1043 1 0.930751 0.773109 0.376064 
1055 1 0.764087 0.783079 0.292742 
1057 1 0.930756 0.79305 0.376086 
805 1 0.764084 0.773109 0.0427307 
821 1 0.76409 0.79305 0.0427531 
662 1 0.097428 0.812992 0.20944 
830 1 0.264092 0.803021 0.292763 
847 1 0.264097 0.822963 0.292782 
661 1 0.264095 0.812992 0.042773 
843 1 0.0974256 0.803021 0.45943 
844 1 0.0974303 0.822963 0.459448 
833 1 0.430759 0.803021 0.126097 
834 1 0.430764 0.822963 0.126115 
835 1 0.597428 0.812992 0.20944 
836 1 0.430761 0.812992 0.376106 
1069 1 0.597426 0.803021 0.45943 
1070 1 0.59743 0.822963 0.459448 
1056 1 0.764092 0.803021 0.292763 
1059 1 0.930759 0.803021 0.126097 
1060 1 0.930764 0.822963 0.126115 
1061 1 0.930761 0.812992 0.376106 
1073 1 0.764097 0.822963 0.292782 
823 1 0.764095 0.812992 0.042773 
666 1 0.0974325 0.832934 0.209456 
668 1 0.0974363 0.852876 0.209469 
848 1 0.264101 0.842905 0.292796 
665 1 0.264099 0.832934 0.0427894 
667 1 0.264103 0.852876 0.0428018 
664 1 0.0974345 0.842905 -0.0405372 
840 1 0.597433 0.832934 0.209456 
849 1 0.430766 0.832934 0.376123 
851 1 0.430768 0.842905 0.126129 
853 1 0.597436 0.852876 0.209469 
854 1 0.43077 0.852876 0.376135 
838 1 0.597434 0.842905 -0.0405372 
1074 1 0.764101 0.842905 0.292796 
1075 1 0.930766 0.832934 0.376123 
1077 1 0.930768 0.842905 0.126129 
1079 1 0.93077 0.852876 0.376135 
839 1 0.764099 0.832934 0.0427894 
841 1 0.764103 0.852876 0.0428018 
672 1 0.0974399 0.872818 0.209478 
865 1 0.264105 0.862847 0.292807 
866 1 0.264109 0.882788 0.292815 
671 1 0.264107 0.872818 0.0428112 
670 1 0.097442 0.882788 -0.040518 
669 1 0.097438 0.862847 -0.0405264 
852 1 0.430771 0.862847 0.12614 
858 1 0.59744 0.872818 0.209478 
867 1 0.430773 0.872818 0.376145 
869 1 0.430775 0.882788 0.126148 
856 1 0.597442 0.882788 -0.040518 
855 1 0.597438 0.862847 -0.0405264 
1078 1 0.930771 0.862847 0.12614 
1091 1 0.764105 0.862847 0.292807 
1092 1 0.764109 0.882788 0.292815 
1093 1 0.930773 0.872818 0.376145 
1095 1 0.930775 0.882788 0.126148 
857 1 0.764107 0.872818 0.0428112 
674 1 0.0974441 0.892759 0.209485 
677 1 0.264115 0.912701 0.0428263 
678 1 0.0974481 0.912701 0.209493 
883 1 0.264113 0.90273 0.292822 
673 1 0.264111 0.892759 0.0428188 
675 1 0.097446 0.90273 -0.0405109 
870 1 0.43078 0.90273 0.126156 
871 1 0.597444 0.892759 0.209485 
872 1 0.430778 0.892759 0.376152 
876 1 0.597448 0.912701 0.209493 
885 1 0.430781 0.912701 0.37616 
873 1 0.597446 0.90273 -0.0405109 
875 1 0.764115 0.912701 0.0428263 
1096 1 0.93078 0.90273 0.126156 
1097 1 0.930778 0.892759 0.376152 
1109 1 0.764113 0.90273 0.292822 
1111 1 0.930781 0.912701 0.37616 
859 1 0.764111 0.892759 0.0428188 
680 1 0.0974508 0.932644 0.209501 
884 1 0.264116 0.922672 0.29283 
901 1 0.264118 0.942611 0.292838 
679 1 0.264118 0.932644 0.0428343 
676 1 0.0974496 0.922672 -0.0405032 
681 1 0.0974518 0.942611 -0.0404947 
887 1 0.430783 0.922672 0.126164 
888 1 0.430785 0.942611 0.126172 
889 1 0.597451 0.932644 0.209501 
890 1 0.430784 0.932644 0.376168 
874 1 0.59745 0.922672 -0.0405032 
891 1 0.597452 0.942611 -0.0404947 
1110 1 0.764116 0.922672 0.29283 
1113 1 0.930783 0.922672 0.126164 
1114 1 0.930785 0.942611 0.126172 
1115 1 0.930784 0.932644 0.376168 
1127 1 0.764118 0.942611 0.292838 
877 1 0.764118 0.932644 0.0428343 
684 1 0.0974521 0.952594 0.20951 
902 1 0.264119 0.962532 0.292847 
686 1 0.097453 0.972571 0.209517 
683 1 0.264119 0.952594 0.0428427 
685 1 0.26412 0.972571 0.0428498 
682 1 0.0974523 0.962532 -0.0404863 
894 1 0.597452 0.952594 0.20951 
903 1 0.430785 0.952594 0.376177 
905 1 0.430786 0.962532 0.126181 
907 1 0.597453 0.972571 0.209517 
908 1 0.430786 0.972571 0.376183 
892 1 0.597452 0.962532 -0.0404863 
1128 1 0.764119 0.962532 0.292847 
1129 1 0.930785 0.952594 0.376177 
1131 1 0.930786 0.962532 0.126181 
1133 1 0.930786 0.972571 0.376183 
893 1 0.764119 0.952594 0.0428427 
895 1 0.76412 0.972571 0.0428498 
690 1 0.0974531 0.992452 0.209521 
918 1 0.26412 0.982329 0.292852 
919 1 0.26412 1.00227 0.292854 
689 1 0.26412 0.992452 0.0428537 
687 1 0.0974531 0.982329 -0.0404809 
688 1 0.0974531 1.00227 -0.0404787 
906 1 0.430786 0.982329 0.126186 
912 1 0.597453 0.992452 0.209521 
920 1 0.430787 0.992452 0.376187 
922 1 0.430786 1.00227 0.126188 
909 1 0.597453 0.982329 -0.0404809 
910 1 0.597453 1.00227 -0.0404787 
1132 1 0.930786 0.982329 0.126186 
1145 1 0.76412 0.982329 0.292852 
1146 1 0.76412 1.00227 0.292854 
1147 1 0.930787 0.992452 0.376187 
1149 1 0.930786 1.00227 0.126188 
911 1 0.76412 0.992452 0.0428537 
489 1 0.180381 0.00694198 0.958489 
487 1 0.180381 -0.00287629 0.708488 
488 1 0.180382 0.0170651 0.708491 
229 1 0.0137143 -0.00287635 1.04182 
490 1 0.0137147 0.00694198 0.791822 
485 1 0.347048 -0.00287634 0.875154 
491 1 0.347049 0.0170651 0.875157 
32 1 0.513714 -0.00287635 1.04182 
33 1 0.513716 0.0170651 1.04182 
216 1 0.347048 0.00694198 0.625155 
209 1 0.513715 0.00694198 0.791822 
206 1 0.680381 -0.00287629 0.708488 
220 1 0.513716 0.0268223 0.791827 
208 1 0.680381 0.00694198 0.958489 
207 1 0.680382 0.0170651 0.708491 
230 1 1.01372 0.0170651 1.04182 
29 1 0.847048 0.00694198 0.625155 
204 1 0.847048 -0.00287634 0.875154 
210 1 0.847049 0.0170651 0.875157 
496 1 1.01372 0.0268223 0.791827 
499 1 0.180386 0.0467999 0.958501 
493 1 0.180383 0.0268224 0.958493 
497 1 0.180384 0.036862 0.708497 
221 1 0.34705 0.0268224 0.625159 
251 1 0.0137179 0.036862 1.04183 
500 1 0.0137192 0.0467999 0.791834 
238 1 0.347052 0.0467999 0.625167 
492 1 0.347051 0.036862 0.875163 
46 1 0.513718 0.036862 1.04183 
225 1 0.513719 0.0467999 0.791834 
222 1 0.680384 0.036862 0.708497 
224 1 0.680386 0.0467999 0.958501 
212 1 0.680383 0.0268224 0.958493 
31 1 0.84705 0.0268224 0.625159 
42 1 0.847052 0.0467999 0.625167 
211 1 0.847051 0.036862 0.875163 
503 1 0.180389 0.0667494 0.95851 
498 1 0.180387 0.0567832 0.708505 
507 1 0.18039 0.0767221 0.708515 
506 1 0.0137222 0.0667494 0.791844 
243 1 0.347056 0.0667494 0.625176 
501 1 0.347054 0.0567832 0.875172 
502 1 0.347057 0.0767221 0.875182 
47 1 0.513721 0.0567831 1.04184 
60 1 0.513724 0.0767221 1.04185 
242 1 0.513722 0.0667494 0.791844 
228 1 0.680389 0.0667494 0.95851 
244 1 0.68039 0.0767221 0.708515 
273 1 1.01372 0.0767221 1.04185 
223 1 0.680387 0.0567832 0.708505 
252 1 1.01372 0.0567831 1.04184 
44 1 0.847056 0.0667494 0.625176 
226 1 0.847054 0.0567832 0.875172 
227 1 0.847057 0.0767221 0.875182 
509 1 0.180392 0.0866923 0.95852 
513 1 0.180396 0.106634 0.95853 
508 1 0.180394 0.0966635 0.708525 
260 1 0.347059 0.0866923 0.625187 
265 1 0.347063 0.106634 0.625196 
511 1 0.347061 0.0966635 0.875192 
61 1 0.513728 0.0966635 1.04186 
247 1 0.513726 0.0866923 0.791853 
264 1 0.51373 0.106634 0.791863 
250 1 0.680396 0.106634 0.95853 
246 1 0.680392 0.0866923 0.95852 
274 1 1.01373 0.0966635 1.04186 
516 1 1.01373 0.106634 0.791863 
510 1 1.01373 0.0866923 0.791853 
245 1 0.680394 0.0966635 0.708525 
56 1 0.847059 0.0866923 0.625187 
58 1 0.847063 0.106634 0.625196 
248 1 0.847061 0.0966635 0.875192 
515 1 0.013732 0.116605 0.541868 
519 1 0.180401 0.126576 0.95854 
517 1 0.180399 0.116605 0.708535 
518 1 0.180404 0.136547 0.708545 
282 1 0.347068 0.126576 0.625206 
521 1 0.347071 0.136547 0.875211 
512 1 0.347065 0.116605 0.875201 
263 1 0.513732 0.116605 0.541868 
284 1 0.513738 0.136547 0.541878 
269 1 0.513735 0.126576 0.791873 
268 1 0.680401 0.126576 0.95854 
267 1 0.680404 0.136547 0.708545 
524 1 1.01374 0.136547 0.541878 
520 1 1.01373 0.126576 0.791873 
266 1 0.680399 0.116605 0.708535 
70 1 0.847068 0.126576 0.625206 
249 1 0.847065 0.116605 0.875201 
270 1 0.847071 0.136547 0.875211 
523 1 0.180408 0.146518 0.958551 
529 1 0.180416 0.16646 0.958565 
527 1 0.180412 0.156489 0.708557 
287 1 0.347074 0.146518 0.625218 
530 1 0.0137491 0.16646 0.791898 
285 1 0.513745 0.156489 0.541891 
304 1 0.347083 0.16646 0.625232 
522 1 0.347078 0.156489 0.875224 
286 1 0.513741 0.146518 0.791884 
291 1 0.513749 0.16646 0.791898 
272 1 0.680408 0.146518 0.958551 
288 1 0.680412 0.156489 0.708557 
525 1 1.01375 0.156489 0.541891 
290 1 0.680416 0.16646 0.958565 
526 1 1.01374 0.146518 0.791884 
72 1 0.847074 0.146518 0.625218 
84 1 0.847083 0.16646 0.625232 
271 1 0.847078 0.156489 0.875224 
534 1 0.0137538 0.176431 0.541907 
535 1 0.0137639 0.196373 0.541927 
533 1 0.180425 0.186402 0.958583 
528 1 0.180421 0.176431 0.708574 
537 1 0.18043 0.196373 0.708594 
531 1 0.347087 0.176431 0.87524 
306 1 0.513754 0.176431 0.541907 
307 1 0.513764 0.196373 0.541927 
532 1 0.347097 0.196373 0.875261 
309 1 0.347092 0.186402 0.62525 
308 1 0.513759 0.186402 0.791917 
294 1 0.680425 0.186402 0.958583 
289 1 0.680421 0.176431 0.708574 
536 1 1.01376 0.186402 0.791917 
310 1 0.68043 0.196373 0.708594 
86 1 0.847092 0.186402 0.62525 
292 1 0.847087 0.176431 0.87524 
293 1 0.847097 0.196373 0.875261 
544 1 0.0137748 0.216314 0.54195 
539 1 0.180436 0.206343 0.958605 
538 1 0.180441 0.216314 0.708617 
540 1 0.0137692 0.206343 0.791939 
543 1 0.180447 0.226285 0.958629 
546 1 0.0137803 0.226285 0.791962 
328 1 0.513775 0.216314 0.54195 
326 1 0.347103 0.206343 0.625272 
541 1 0.347108 0.216314 0.875283 
313 1 0.513769 0.206343 0.791939 
331 1 0.347114 0.226285 0.625296 
330 1 0.51378 0.226285 0.791962 
312 1 0.680436 0.206343 0.958605 
311 1 0.680441 0.216314 0.708617 
98 1 0.847103 0.206343 0.625272 
314 1 0.847108 0.216314 0.875283 
316 1 0.680447 0.226285 0.958629 
100 1 0.847114 0.226285 0.625296 
545 1 0.0137857 0.236256 0.541975 
554 1 0.0137965 0.256198 0.542 
549 1 0.180458 0.246227 0.958655 
547 1 0.180452 0.236256 0.708642 
550 1 0.0137911 0.246227 0.791988 
548 1 0.180463 0.256198 0.708667 
329 1 0.513786 0.236256 0.541975 
350 1 0.513796 0.256198 0.542 
542 1 0.347119 0.236256 0.875308 
348 1 0.347124 0.246227 0.625321 
335 1 0.513791 0.246227 0.791988 
551 1 0.34713 0.256198 0.875334 
332 1 0.680452 0.236256 0.708642 
334 1 0.680458 0.246227 0.958655 
112 1 0.847124 0.246227 0.625321 
315 1 0.847119 0.236256 0.875308 
333 1 0.680463 0.256198 0.708667 
336 1 0.84713 0.256198 0.875334 
555 1 0.0138062 0.27614 0.542026 
553 1 0.180468 0.266169 0.95868 
557 1 0.180473 0.27614 0.708692 
556 1 0.0138015 0.266169 0.792013 
559 1 0.180478 0.286111 0.958705 
560 1 0.0138112 0.286111 0.792038 
351 1 0.513806 0.27614 0.542026 
552 1 0.34714 0.27614 0.875359 
352 1 0.513801 0.266169 0.792013 
353 1 0.347135 0.266169 0.625347 
357 1 0.513811 0.286111 0.792038 
370 1 0.347144 0.286111 0.625372 
338 1 0.680468 0.266169 0.95868 
354 1 0.680473 0.27614 0.708692 
114 1 0.847135 0.266169 0.625347 
337 1 0.84714 0.27614 0.875359 
356 1 0.680478 0.286111 0.958705 
126 1 0.847144 0.286111 0.625372 
564 1 0.013816 0.296082 0.542051 
565 1 0.0138269 0.316024 0.542077 
563 1 0.180488 0.306053 0.95873 
558 1 0.180483 0.296082 0.708718 
566 1 0.013821 0.306053 0.792064 
567 1 0.180494 0.316024 0.708743 
372 1 0.513816 0.296082 0.542051 
373 1 0.513827 0.316024 0.542077 
375 1 0.347154 0.306053 0.625397 
561 1 0.347149 0.296082 0.875385 
374 1 0.513821 0.306053 0.792064 
562 1 0.34716 0.316024 0.87541 
360 1 0.680488 0.306053 0.95873 
355 1 0.680483 0.296082 0.708718 
128 1 0.847154 0.306053 0.625397 
358 1 0.847149 0.296082 0.875385 
376 1 0.680494 0.316024 0.708743 
359 1 0.84716 0.316024 0.87541 
574 1 0.0138404 0.335966 0.542103 
568 1 0.180507 0.335966 0.708769 
569 1 0.1805 0.325995 0.958756 
570 1 0.0138335 0.325995 0.792089 
573 1 0.180515 0.345937 0.958783 
576 1 0.0138481 0.345937 0.792117 
394 1 0.51384 0.335966 0.542103 
392 1 0.347167 0.325995 0.625423 
571 1 0.347174 0.335966 0.875436 
379 1 0.513833 0.325995 0.792089 
397 1 0.347181 0.345937 0.62545 
396 1 0.513848 0.345937 0.792117 
377 1 0.680507 0.335966 0.708769 
378 1 0.6805 0.325995 0.958756 
140 1 0.847167 0.325995 0.625423 
380 1 0.847174 0.335966 0.875436 
382 1 0.680515 0.345937 0.958783 
142 1 0.847181 0.345937 0.62545 
575 1 0.0138558 0.355908 0.542131 
584 1 0.0138718 0.375849 0.542162 
577 1 0.180523 0.355908 0.708798 
579 1 0.18053 0.365879 0.958813 
580 1 0.0138636 0.365879 0.792146 
578 1 0.18054 0.37585 0.708828 
395 1 0.513856 0.355908 0.542131 
416 1 0.513872 0.375849 0.542162 
401 1 0.513864 0.365879 0.792146 
414 1 0.347197 0.365879 0.62548 
572 1 0.347189 0.355908 0.875465 
581 1 0.347204 0.37585 0.875496 
398 1 0.680523 0.355908 0.708798 
154 1 0.847197 0.365879 0.62548 
381 1 0.847189 0.355908 0.875465 
400 1 0.68053 0.365879 0.958813 
399 1 0.68054 0.37585 0.708828 
402 1 0.847204 0.37585 0.875496 
583 1 0.180547 0.385821 0.958845 
585 1 0.0138874 0.395791 0.542195 
587 1 0.180559 0.395792 0.708858 
586 1 0.0138799 0.38582 0.792178 
589 1 0.180561 0.405765 0.95888 
590 1 0.0138948 0.405758 0.792212 
417 1 0.513887 0.395791 0.542195 
418 1 0.51388 0.38582 0.792178 
419 1 0.347213 0.385821 0.625511 
582 1 0.347215 0.395792 0.875531 
423 1 0.513895 0.405758 0.792212 
436 1 0.347229 0.405765 0.625543 
420 1 0.680559 0.395792 0.708858 
156 1 0.847213 0.385821 0.625511 
403 1 0.847215 0.395792 0.875531 
404 1 0.680547 0.385821 0.958845 
168 1 0.847229 0.405765 0.625543 
422 1 0.680561 0.405765 0.95888 
588 1 0.1806 0.415732 0.708876 
593 1 0.180553 0.425718 0.95892 
594 1 0.0139021 0.415733 0.542229 
596 1 0.0139093 0.42568 0.792245 
595 1 0.013916 0.435683 0.542261 
597 1 0.180767 0.435665 0.708775 
438 1 0.513902 0.415733 0.542229 
440 1 0.513909 0.42568 0.792245 
441 1 0.347266 0.425718 0.62557 
591 1 0.347205 0.415732 0.875581 
439 1 0.513916 0.435683 0.542261 
592 1 0.347066 0.435665 0.875748 
170 1 0.847266 0.425718 0.62557 
421 1 0.6806 0.415732 0.708876 
424 1 0.847205 0.415732 0.875581 