ITEM: TIMESTEP
0
ITEM: NUMBER OF ATOMS
1220
ITEM: BOX BOUNDS pp ss pp
0.0000000000000000e+000 1.4029600000000000e+001
-7.2165024099180002e+001 7.2209548116000008e+001
0.0000000000000000e+000 9.9204299999999996e+000
ITEM: ATOMS x y z c_cna c_csp 
2.53067 -72.1507 2.06829 5 32.182 
2.53069 -69.2869 2.06832 5 0.0114715 
2.53067 -70.7407 4.54841 5 7.95973 
0.192412 -70.7407 2.895 5 7.95977 
0.192406 -72.1507 0.414872 5 32.182 
0.192486 -69.2869 0.414872 5 0.0114734 
4.86894 -72.1507 3.72169 5 32.1821 
4.86896 -69.2869 3.72172 5 0.0114717 
4.86894 -70.7407 1.24159 5 7.95978 
7.20722 -70.7407 2.895 5 7.95977 
7.2072 -72.1507 0.414872 5 32.182 
7.20723 -69.2869 0.414872 5 0.0114734 
9.54547 -72.1507 2.06829 5 32.182 
9.54549 -69.2869 2.06832 5 0.0114715 
9.54547 -70.7407 4.54841 5 7.95973 
11.8837 -70.7407 1.24159 5 7.95978 
11.8837 -72.1507 3.72169 5 32.1821 
11.8838 -69.2869 3.72172 5 0.0114718 
0.192486 -67.8857 2.89505 5 0.00677855 
2.53072 -66.444 2.06838 5 0.00117226 
2.5307 -67.8857 4.54845 5 0.0067684 
2.53074 -65.0168 4.54853 5 0.000186011 
0.192475 -65.0168 2.89512 5 0.000185943 
0.192457 -66.444 0.414972 5 0.00117217 
7.20723 -67.8857 2.89505 5 0.00677852 
4.86897 -67.8857 1.24163 5 0.0067684 
4.869 -65.0168 1.24171 5 0.000186013 
4.86899 -66.444 3.72178 5 0.00117226 
7.20727 -65.0168 2.89512 5 0.00018594 
7.20726 -66.444 0.414972 5 0.00117216 
9.54552 -66.444 2.06838 5 0.00117226 
9.5455 -67.8857 4.54845 5 0.0067684 
9.54554 -65.0168 4.54853 5 0.000186011 
11.8838 -67.8857 1.24163 5 0.0067684 
11.8838 -65.0168 1.24171 5 0.000186013 
11.8838 -66.444 3.72178 5 0.00117226 
2.53076 -63.5831 2.06846 5 3.05843e-005 
2.5308 -60.7198 2.06856 5 6.54788e-007 
0.192517 -62.1519 2.89522 5 4.34358e-006 
2.53079 -62.1519 4.54862 5 4.36105e-006 
0.192486 -60.7198 0.41517 5 7.52592e-007 
0.192486 -63.5832 0.415071 5 3.01753e-005 
4.86906 -62.1519 1.2418 5 4.36153e-006 
4.86903 -63.5831 3.72187 5 3.05829e-005 
4.86907 -60.7198 3.72197 5 6.45549e-007 
7.20731 -62.1519 2.89522 5 4.33207e-006 
7.2073 -63.5832 0.415071 5 3.01733e-005 
7.20734 -60.7198 0.41517 5 6.39872e-007 
9.5456 -60.7198 2.06856 5 6.46828e-007 
9.54559 -62.1519 4.54862 5 4.35769e-006 
9.54556 -63.5831 2.06846 5 3.05844e-005 
11.8839 -62.1519 1.2418 5 4.36677e-006 
11.8838 -63.5831 3.72187 5 3.05831e-005 
11.8839 -60.7198 3.72197 5 6.5343e-007 
2.53086 -57.8561 2.06866 5 4.82051e-008 
2.53083 -59.288 4.54872 5 1.21046e-007 
2.53088 -56.4242 4.54881 5 2.5333e-008 
0.192626 -56.4242 2.89541 5 2.51057e-008 
0.192626 -59.288 2.89531 5 2.13524e-007 
0.192626 -57.8561 0.415269 5 7.47663e-008 
4.8691 -59.288 1.24191 5 1.13074e-007 
4.86916 -56.4242 1.242 5 2.43183e-008 
4.86913 -57.8561 3.72207 5 4.11192e-008 
7.20737 -59.288 2.89531 5 1.14944e-007 
7.20743 -56.4242 2.89541 5 2.37279e-008 
7.2074 -57.8561 0.415269 5 4.79974e-008 
9.54568 -56.4242 4.54881 5 2.37584e-008 
9.54563 -59.288 4.54872 5 1.13173e-007 
9.54566 -57.8561 2.06866 5 4.19065e-008 
11.8839 -59.288 1.24191 5 1.2016e-007 
11.884 -56.4242 1.242 5 2.5893e-008 
11.8839 -57.8561 3.72207 5 4.50558e-008 
2.53093 -54.9923 2.06876 5 1.0912e-008 
2.531 -52.1285 2.06886 5 7.85449e-009 
2.53095 -53.5604 4.54891 5 6.69221e-009 
0.192654 -54.9923 0.415352 5 1.89387e-008 
0.192626 -53.5604 2.89551 5 1.28048e-007 
0.192767 -52.1285 0.415449 5 5.44834e-008 
4.86923 -53.5604 1.2421 5 1.17114e-009 
4.86927 -52.1285 3.72225 5 2.95245e-009 
4.86918 -54.9923 3.72216 5 7.32086e-009 
7.2075 -53.5604 2.89551 5 6.98745e-010 
7.20745 -54.9923 0.415352 5 6.73529e-009 
7.20754 -52.1285 0.415449 5 1.92992e-009 
9.54575 -53.5604 4.54891 5 2.16513e-009 
9.5458 -52.1285 2.06886 5 3.52424e-009 
9.54573 -54.9923 2.06876 5 5.99127e-009 
11.884 -53.5604 1.2421 5 7.66652e-009 
11.884 -54.9923 3.72216 5 1.02733e-008 
11.8841 -52.1285 3.72225 5 6.88904e-009 
2.53111 -49.2647 2.06898 5 7.80036e-009 
2.53105 -50.6966 4.54902 5 7.57794e-009 
2.53116 -47.8328 4.54916 5 7.48937e-009 
0.192894 -47.8328 2.89575 5 1.71242e-008 
0.192767 -50.6966 2.89561 5 4.41361e-008 
0.192907 -49.2647 0.415575 5 1.11304e-007 
4.86931 -50.6966 1.24222 5 4.11866e-009 
4.86944 -47.8328 1.24236 5 2.32653e-009 
4.86937 -49.2647 3.72238 5 3.64135e-009 
7.20758 -50.6966 2.89561 5 2.64244e-009 
7.20769 -47.8328 2.89575 5 5.53485e-009 
7.20764 -49.2647 0.415575 5 2.64244e-009 
9.54591 -49.2647 2.06898 5 4.68849e-009 
9.54585 -50.6966 4.54902 5 1.27939e-009 
9.54596 -47.8328 4.54916 5 2.55879e-009 
11.8841 -50.6966 1.24222 5 1.31728e-008 
11.8842 -47.8328 1.24236 5 7.21775e-009 
11.8842 -49.2647 3.72238 5 1.03749e-008 
2.53123 -46.4009 2.06914 5 2.11592e-009 
2.53136 -43.5371 2.06934 5 1.07593e-007 
2.53129 -44.969 4.54934 5 2.58291e-008 
0.19296 -46.4009 0.415735 5 1.06829e-008 
0.193102 -43.5371 0.415935 5 1.05988e-007 
0.193047 -44.969 2.89594 5 2.8688e-008 
4.86949 -46.4009 3.72254 5 4.82233e-009 
4.86963 -43.5371 3.72275 5 1.04099e-007 
4.86956 -44.969 1.24253 5 2.3596e-008 
7.20783 -44.969 2.89594 5 2.21001e-008 
7.20776 -46.4009 0.415735 5 2.08738e-009 
7.2079 -43.5371 0.415935 5 1.05343e-007 
9.54603 -46.4009 2.06914 5 1.86988e-009 
9.54609 -44.969 4.54934 5 2.53468e-008 
9.54616 -43.5371 2.06934 5 1.0656e-007 
11.8844 -44.969 1.24253 5 2.37633e-008 
11.8843 -46.4009 3.72254 5 5.34393e-009 
11.8844 -43.5371 3.72275 5 1.04699e-007 
2.53152 -40.6734 2.06957 5 2.22861e-008 
2.53144 -42.1053 4.54956 5 1.04313e-007 
0.193176 -42.1053 2.89616 5 1.04405e-007 
2.5316 -39.2415 4.5498 5 1.02745e-009 
0.193332 -39.2415 2.89639 5 1.66715e-009 
0.193255 -40.6734 0.416166 5 2.10057e-008 
4.86972 -42.1053 1.24275 5 1.04509e-007 
4.86979 -40.6734 3.72297 5 2.32801e-008 
7.20797 -42.1053 2.89616 5 1.04312e-007 
4.86987 -39.2415 1.24299 5 1.59038e-009 
7.20813 -39.2415 2.89639 5 2.06278e-009 
7.20806 -40.6734 0.416166 5 2.14585e-008 
9.54632 -40.6734 2.06957 5 2.21346e-008 
9.54624 -42.1053 4.54956 5 1.04296e-007 
11.8845 -42.1053 1.24275 5 1.04566e-007 
11.8846 -40.6734 3.72297 5 2.33136e-008 
9.5464 -39.2415 4.5498 5 9.84149e-010 
11.8847 -39.2415 1.24299 5 1.71242e-009 
2.53167 -37.8096 2.06982 5 9.42814e-010 
0.193484 -36.3777 2.89665 5 3.74961e-010 
2.53175 -36.3777 4.55005 5 1.70258e-009 
2.53182 -34.9458 2.07007 5 6.17061e-010 
0.193408 -37.8096 0.41641 5 3.13944e-010 
0.193559 -34.9458 0.416663 5 6.00331e-010 
4.86994 -37.8096 3.72322 5 5.9049e-010 
4.87001 -36.3777 1.24324 5 1.20558e-009 
7.20828 -36.3777 2.89665 5 5.16678e-010 
4.8701 -34.9458 3.72347 5 1.37781e-009 
7.20821 -37.8096 0.41641 5 1.16228e-009 
7.20835 -34.9458 0.416663 5 4.96011e-010 
9.54647 -37.8096 2.06982 5 9.84149e-010 
11.8848 -36.3777 1.24324 5 1.19574e-009 
11.8847 -37.8096 3.72322 5 6.27887e-010 
9.54655 -36.3777 4.55005 5 1.86988e-009 
9.54662 -34.9458 2.07007 5 7.13508e-010 
11.8849 -34.9458 3.72347 5 1.04517e-009 
2.53196 -32.082 2.07031 5 6.20014e-010 
0.19363 -33.5139 2.89689 5 2.58831e-010 
2.53189 -33.5139 4.5503 5 4.01533e-010 
2.53203 -30.6501 4.55055 5 3.50357e-010 
0.193766 -30.6501 2.89714 5 7.27286e-010 
0.193695 -32.082 0.416914 5 3.48389e-010 
4.87024 -32.082 3.72372 5 1.47622e-009 
7.20842 -33.5139 2.89689 5 7.17444e-010 
4.87017 -33.5139 1.2435 5 2.13462e-009 
7.20856 -30.6501 2.89714 5 7.72557e-010 
4.87029 -30.6501 1.24374 5 1.36305e-009 
7.20849 -32.082 0.416914 5 5.3144e-010 
9.54676 -32.082 2.07031 5 7.5189e-010 
9.54669 -33.5139 4.5503 5 2.95245e-010 
11.885 -33.5139 1.2435 5 1.76852e-009 
11.885 -32.082 3.72372 5 1.18688e-009 
11.8851 -30.6501 1.24374 5 1.53626e-009 
9.54683 -30.6501 4.55055 5 4.92074e-010 
2.5321 -29.2182 2.07057 5 1.1111e-009 
2.53217 -27.7863 4.5508 5 2.26551e-009 
0.193903 -27.7863 2.8974 5 2.36983e-009 
2.53226 -26.3544 2.07082 5 1.29612e-009 
0.193833 -29.2182 0.417165 5 3.33626e-010 
0.193986 -26.3544 0.417417 5 1.88563e-009 
4.87043 -27.7863 1.24399 5 4.25743e-009 
4.87036 -29.2182 3.72398 5 2.26354e-009 
7.2087 -27.7863 2.8974 5 1.79706e-009 
4.87052 -26.3544 3.72423 5 2.95245e-009 
7.20863 -29.2182 0.417165 5 2.76546e-010 
7.20879 -26.3544 0.417417 5 1.04713e-009 
9.5469 -29.2182 2.07057 5 1.18196e-009 
9.54697 -27.7863 4.5508 5 2.26354e-009 
11.8852 -27.7863 1.24399 5 4.18066e-009 
11.8852 -29.2182 3.72398 5 2.35015e-009 
9.54706 -26.3544 2.07082 5 1.40241e-009 
11.8853 -26.3544 3.72423 5 3.16108e-009 
2.53234 -24.9225 4.55106 5 2.7005e-009 
2.53244 -23.4906 2.07108 5 4.10685e-009 
0.194078 -24.9225 2.89765 5 2.78711e-009 
2.53255 -22.0587 4.55132 5 1.91122e-009 
0.194283 -22.0587 2.89793 5 5.15694e-010 
0.194175 -23.4906 0.417677 5 1.98601e-009 
4.87061 -24.9225 1.24425 5 6.2395e-010 
4.87071 -23.4906 3.72449 5 1.57464e-009 
7.20887 -24.9225 2.89765 5 5.03294e-009 
4.87081 -22.0587 1.24452 5 2.91111e-009 
7.20908 -22.0587 2.89793 5 6.08204e-010 
7.20897 -23.4906 0.417677 5 4.07044e-009 
9.54714 -24.9225 4.55106 5 2.6572e-009 
9.54724 -23.4906 2.07108 5 3.98482e-009 
11.8854 -24.9225 1.24425 5 5.09789e-010 
11.8855 -23.4906 3.72449 5 1.49984e-009 
9.54735 -22.0587 4.55132 5 2.06671e-009 
11.8856 -22.0587 1.24452 5 3.07054e-009 
2.53267 -20.6268 2.07137 5 1.62483e-009 
2.53276 -19.1949 4.55162 5 2.57484e-008 
0.194501 -19.1949 2.89821 5 6.44521e-008 
2.5329 -17.763 2.07166 5 5.48881e-008 
0.194391 -20.6268 0.417961 5 2.13443e-008 
0.194616 -17.7631 0.418265 5 3.0993e-007 
7.20931 -19.1949 2.89821 5 6.42002e-008 
4.87104 -19.1949 1.24482 5 2.24426e-008 
4.87092 -20.6268 3.72477 5 9.84149e-010 
4.87113 -17.763 3.72508 5 5.40398e-008 
7.20919 -20.6268 0.417961 5 2.13325e-008 
7.20942 -17.7631 0.418265 5 3.10155e-007 
9.54747 -20.6268 2.07137 5 1.38667e-009 
11.8858 -19.1949 1.24482 5 2.22536e-008 
11.8857 -20.6268 3.72477 5 7.89288e-010 
9.54756 -19.1949 4.55162 5 2.59373e-008 
11.8859 -17.763 3.72508 5 5.3215e-008 
9.5477 -17.763 2.07166 5 5.39413e-008 
2.53317 -14.8992 2.07196 5 1.06988e-006 
2.533 -16.3311 4.55194 5 1.72863e-007 
0.194835 -14.8993 0.418588 5 1.40397e-006 
0.194729 -16.3312 2.89853 5 4.41963e-007 
2.5332 -13.467 4.55229 5 6.6671e-006 
0.194938 -13.468 2.89887 5 1.49079e-005 
7.20953 -16.3312 2.89853 5 4.4216e-007 
4.87126 -16.3311 1.24512 5 1.745e-007 
7.20963 -14.8993 0.418588 5 1.40445e-006 
4.87129 -14.8992 3.72543 5 1.09708e-006 
7.20974 -13.468 2.89887 5 1.49085e-005 
4.87148 -13.467 1.24544 5 6.67799e-006 
9.54797 -14.8992 2.07196 5 1.07122e-006 
11.8861 -16.3311 1.24512 5 1.74266e-007 
9.5478 -16.3311 4.55194 5 1.72704e-007 
11.8861 -14.8992 3.72543 5 1.09826e-006 
11.8863 -13.467 1.24544 5 6.68287e-006 
9.548 -13.467 4.55229 5 6.67214e-006 
0.195041 -12.0355 0.418925 5 4.58672e-005 
2.53375 -12.0357 2.07214 5 3.7511e-005 
2.53309 -10.6016 4.55268 5 0.000221446 
0.195142 -10.6071 2.8992 5 0.000466681 
2.53609 -9.17314 2.07114 5 0.00122773 
0.195236 -9.17056 0.419251 5 0.00151763 
7.20984 -12.0355 0.418925 5 4.58674e-005 
7.20994 -10.6071 2.8992 5 0.000466681 
4.872 -10.6016 1.24571 5 0.000221126 
4.87115 -12.0357 3.72593 5 3.74767e-005 
7.21004 -9.17056 0.419251 5 0.00151763 
4.8692 -9.17314 3.72758 5 0.00122644 
11.8868 -10.6016 1.24571 5 0.000221123 
11.8859 -12.0357 3.72593 5 3.74845e-005 
9.54855 -12.0357 2.07214 5 3.75189e-005 
9.54789 -10.6016 4.55268 5 0.000221444 
9.55089 -9.17314 2.07114 5 0.00122773 
11.884 -9.17314 3.72758 5 0.00122645 
2.53056 -7.72975 4.55167 5 0.0070263 
0.195333 -7.75833 2.8995 5 0.0122223 
2.54567 -6.31781 2.0598 5 0.0346156 
0.195407 -6.29541 0.419576 5 0.0432501 
2.52113 -4.83363 4.51711 5 0.263328 
0.19554 -4.95484 2.89981 5 0.251867 
7.21013 -7.75833 2.8995 5 0.0122223 
4.87489 -7.72975 1.24736 5 0.00702565 
4.85997 -6.31781 3.73953 5 0.0346165 
7.2102 -6.29541 0.419576 5 0.0432501 
7.21034 -4.95484 2.89981 5 0.251867 
4.88464 -4.83363 1.28257 5 0.263462 
11.8897 -7.72975 1.24736 5 0.00702566 
11.8748 -6.31781 3.73953 5 0.0346165 
9.54536 -7.72975 4.55167 5 0.0070263 
9.56047 -6.31781 2.0598 5 0.0346156 
11.8994 -4.83363 1.28257 5 0.263463 
9.53593 -4.83363 4.51711 5 0.263328 
2.50883 -3.49019 1.9779 5 1.27069 
0.195559 -3.33553 0.41997 5 5.363 
0.195794 -2.17978 2.90015 5 8.73955 
2.7555 -1.839 4.21528 5 8.33402 
1.94962 -0.693593 1.59032 5 3.4808 
4.65083 -1.83871 1.58536 5 8.33817 
7.21036 -3.33553 0.41997 5 5.36301 
4.89727 -3.49034 3.82199 5 1.27158 
7.2106 -2.17978 2.90015 5 8.73953 
8.96442 -0.693593 1.59032 5 3.4808 
5.45702 -0.693736 4.21047 5 3.48135 
9.52363 -3.49019 1.9779 5 1.27069 
11.9121 -3.49034 3.82199 5 1.27158 
9.7703 -1.839 4.21528 5 8.33401 
11.6656 -1.83871 1.58536 5 8.33817 
12.4718 -0.693736 4.21047 5 3.48135 
3.7033 0.79245 2.9006 5 8.74032 
1.14353 0.451384 4.21539 5 8.33834 
3.70337 1.9482 0.420554 5 5.36291 
1.3902 2.10286 1.97866 5 1.27148 
3.70351 3.56751 2.90086 5 0.251968 
1.3778 3.44616 4.51806 5 0.263683 
6.26301 0.451528 1.58548 5 8.33475 
8.15832 0.451384 4.21539 5 8.33833 
8.40499 2.10286 1.97866 5 1.27148 
6.01655 2.10286 3.82277 5 1.27079 
6.02911 3.4463 1.28353 5 0.263242 
8.3926 3.44616 4.51806 5 0.263693 
13.2778 0.451528 1.58548 5 8.33474 
10.7181 0.79245 2.9006 5 8.74031 
10.7182 1.9482 0.420554 5 5.36291 
10.7183 3.56751 2.90086 5 0.251967 
13.0314 2.10286 3.82277 5 1.27078 
13.0439 3.4463 1.28353 5 0.263242 
3.70356 4.90808 0.420864 5 0.0432541 
1.35331 4.93048 2.0611 5 0.034677 
3.70373 7.78309 0.421155 5 0.00153722 
1.36288 7.78567 2.07303 5 0.00122759 
3.70365 6.371 2.90113 5 0.0122824 
1.36841 6.34228 4.55326 5 0.007071 
8.36811 4.93048 2.0611 5 0.0346789 
6.05381 4.93048 3.74083 5 0.0346129 
6.03887 6.34242 1.24895 5 0.00699536 
8.37768 7.78567 2.07303 5 0.0012277 
6.04457 7.78567 3.72949 5 0.00122208 
8.38321 6.34228 4.55326 5 0.00707098 
10.7184 4.90808 0.420864 5 0.0432542 
13.0686 4.93048 3.74083 5 0.0346126 
10.7185 7.78309 0.421155 5 0.00153722 
13.0537 6.34242 1.24895 5 0.00699538 
10.7184 6.371 2.90113 5 0.0122824 
13.0594 7.78567 3.72949 5 0.00122201 
3.7038 9.21973 2.90142 5 0.000483927 
3.70387 10.6482 0.421459 5 4.75681e-005 
1.36517 10.6482 2.07467 5 3.75204e-005 
3.70394 12.0807 2.90172 5 1.56073e-005 
1.36585 9.21413 4.5549 5 0.000222477 
1.36569 12.0797 4.55514 5 6.37088e-006 
6.04175 9.21413 1.24792 5 0.000221011 
6.0422 12.0797 1.2483 5 6.37223e-006 
8.37998 10.6482 2.07467 5 3.74515e-005 
6.04258 10.6482 3.72846 5 3.75244e-005 
8.38065 9.21413 4.5549 5 0.00022238 
8.38048 12.0797 4.55514 5 6.36402e-006 
10.7186 9.21973 2.90142 5 0.000483963 
13.0565 9.21413 1.24792 5 0.000221 
10.7187 10.6482 0.421459 5 4.75699e-005 
13.057 12.0797 1.2483 5 6.37633e-006 
13.0574 10.6482 3.72846 5 3.75302e-005 
10.7187 12.0807 2.90172 5 1.55994e-005 
3.70401 13.512 0.421765 5 1.42567e-006 
1.36566 13.5118 2.07514 5 1.04673e-006 
3.70412 16.3757 0.422062 5 6.36304e-008 
1.36584 16.3757 2.07546 5 3.35044e-008 
3.70407 14.9439 2.90202 5 4.84766e-007 
1.3658 14.9438 4.55543 5 1.54445e-007 
8.38046 13.5118 2.07514 5 1.05456e-006 
6.04235 13.5118 3.72861 5 1.04249e-006 
6.04234 14.9438 1.24862 5 1.5729e-007 
8.38064 16.3757 2.07546 5 3.56696e-008 
6.04241 16.3757 3.72888 5 3.65661e-008 
8.3806 14.9438 4.55543 5 1.571e-007 
10.7188 13.512 0.421765 5 1.42578e-006 
13.0572 13.5118 3.72861 5 1.03857e-006 
10.7189 16.3757 0.422062 5 6.35969e-008 
10.7189 14.9439 2.90202 5 4.85362e-007 
13.0571 14.9438 1.24862 5 1.56143e-007 
13.0572 16.3757 3.72888 5 3.69145e-008 
3.70417 17.8076 2.90231 5 2.46687e-008 
3.70422 19.2395 0.422333 5 1.47721e-009 
1.36595 19.2395 2.07573 5 9.76276e-010 
3.70428 20.6714 2.90256 5 1.50575e-009 
1.3659 17.8076 4.55571 5 1.88563e-009 
1.36601 20.6714 4.55597 5 1.3286e-009 
6.04244 17.8076 1.2489 5 2.92194e-009 
8.38075 19.2395 2.07573 5 1.57464e-009 
6.04249 19.2395 3.72914 5 1.18098e-009 
6.04253 20.6714 1.24916 5 2.18875e-009 
8.38071 17.8076 4.55571 5 2.95245e-009 
8.38081 20.6714 4.55597 5 1.57464e-009 
13.0572 17.8076 1.2489 5 2.92391e-009 
10.719 17.8076 2.90231 5 2.46274e-008 
10.719 19.2395 0.422333 5 1.43784e-009 
10.7191 20.6714 2.90256 5 1.67699e-009 
13.0573 19.2395 3.72914 5 1.14161e-009 
13.0573 20.6714 1.24916 5 2.21434e-009 
3.70432 22.1033 0.422573 5 1.30006e-009 
1.36605 22.1033 2.07598 5 1.44473e-009 
3.70442 24.9671 0.422792 5 2.92883e-009 
1.36616 24.9671 2.0762 5 3.55278e-010 
3.70438 23.5352 2.90279 5 1.33943e-009 
1.3661 23.5352 4.5562 5 3.95628e-010 
8.38085 22.1033 2.07598 5 2.46431e-009 
6.04259 22.1033 3.72939 5 2.55879e-009 
6.04263 23.5352 1.24939 5 1.29219e-009 
8.38096 24.9671 2.0762 5 2.05687e-010 
6.04269 24.9671 3.72961 5 1.47622e-009 
8.3809 23.5352 4.5562 5 2.95245e-010 
10.7191 22.1033 0.422573 5 1.28038e-009 
13.0574 22.1033 3.72939 5 2.46037e-009 
10.7192 24.9671 0.422792 5 3.07448e-009 
13.0574 23.5352 1.24939 5 1.20165e-009 
10.7192 23.5352 2.90279 5 1.3906e-009 
13.0575 24.9671 3.72961 5 1.4093e-009 
3.70449 26.399 2.90301 5 1.04418e-009 
3.70454 27.8309 0.423009 5 1.81083e-010 
1.36628 27.8309 2.07642 5 2.12576e-010 
3.7046 29.2628 2.90322 5 2.44758e-009 
1.36622 26.399 4.55641 5 2.18481e-010 
1.36634 29.2628 4.55663 5 2.67688e-010 
6.04275 26.399 1.24961 5 1.19377e-009 
6.04287 29.2628 1.24983 5 5.79664e-010 
8.38107 27.8309 2.07642 5 9.88085e-010 
6.04282 27.8309 3.72982 5 1.08256e-009 
8.38102 26.399 4.55641 5 1.9683e-010 
8.38114 29.2628 4.55663 5 6.88904e-010 
10.7193 26.399 2.90301 5 1.09536e-009 
13.0575 26.399 1.24961 5 1.10323e-009 
10.7193 27.8309 0.423009 5 1.53527e-010 
13.0577 29.2628 1.24983 5 6.36744e-010 
13.0576 27.8309 3.72982 5 1.03139e-009 
10.7194 29.2628 2.90322 5 2.19367e-009 
3.70467 30.6947 0.42323 5 1.43686e-010 
1.3664 30.6947 2.07663 5 5.65886e-010 
1.36653 33.5585 2.07686 5 7.24333e-010 
3.70474 32.1266 2.90345 5 1.80198e-009 
3.7048 33.5585 0.423454 5 3.60198e-010 
1.36647 32.1266 4.55686 5 1.09831e-009 
8.3812 30.6947 2.07663 5 1.20558e-009 
6.04294 30.6947 3.73004 5 8.85734e-010 
6.043 32.1266 1.25004 5 8.11923e-010 
8.38133 33.5585 2.07686 5 1.27939e-009 
6.04307 33.5585 3.73026 5 1.57464e-009 
8.38127 32.1266 4.55686 5 1.27939e-009 
10.7195 30.6947 0.42323 5 1.02352e-010 
13.0577 30.6947 3.73004 5 7.30238e-010 
10.7195 32.1266 2.90345 5 2.09132e-009 
13.0578 32.1266 1.25004 5 9.16242e-010 
13.0579 33.5585 3.73026 5 1.44276e-009 
10.7196 33.5585 0.423454 5 2.95245e-010 
3.70485 34.9904 2.90367 5 7.25318e-010 
1.36659 34.9904 4.55708 5 7.06619e-010 
1.36664 36.4223 2.07708 5 2.16317e-008 
3.70495 37.8542 2.9039 5 4.17891e-008 
3.70491 36.4223 0.423677 5 1.5146e-009 
1.36669 37.8542 4.55731 5 6.23628e-008 
6.04312 34.9904 1.25027 5 1.59924e-009 
8.3814 34.9904 4.55708 5 3.05086e-009 
8.38144 36.4223 2.07708 5 2.19269e-008 
6.04318 36.4223 3.73049 5 1.9683e-009 
6.04322 37.8542 1.2505 5 4.24209e-008 
8.38149 37.8542 4.55731 5 6.32465e-008 
13.0579 34.9904 1.25027 5 1.4339e-009 
10.7197 34.9904 2.90367 5 8.11923e-010 
10.7198 37.8542 2.9039 5 4.20076e-008 
13.058 36.4223 3.73049 5 2.27535e-009 
13.058 37.8542 1.2505 5 4.2417e-008 
10.7197 36.4223 0.423677 5 1.42603e-009 
1.36673 39.286 2.07731 5 1.86475e-007 
1.36681 42.1498 2.07753 5 5.34393e-010 
3.70503 40.7179 2.90413 5 8.33557e-008 
3.70499 39.2861 0.423907 5 1.24094e-007 
3.70508 42.1498 0.424129 5 2.26768e-008 
1.36677 40.7179 4.55753 5 6.37032e-008 
8.38154 39.286 2.07731 5 1.87426e-007 
6.04331 40.7179 1.25072 5 8.33872e-008 
6.04326 39.2861 3.73072 5 1.24033e-007 
8.38161 42.1498 2.07753 5 9.06401e-010 
6.04333 42.1498 3.73093 5 2.20007e-008 
8.38158 40.7179 4.55753 5 6.51164e-008 
13.0581 40.7179 1.25072 5 8.34541e-008 
13.0581 39.2861 3.73072 5 1.24131e-007 
10.7198 40.7179 2.90413 5 8.34856e-008 
13.0581 42.1498 3.73093 5 2.17271e-008 
10.7198 39.2861 0.423907 5 1.24489e-007 
10.7199 42.1498 0.424129 5 2.25961e-008 
1.36688 45.0136 2.07773 5 3.89133e-009 
3.70511 43.5817 2.90433 5 1.05599e-009 
3.70518 46.4455 2.90452 5 3.96022e-009 
3.70515 45.0136 0.424327 5 2.5145e-009 
1.36684 43.5817 4.55774 5 1.35025e-009 
1.36691 46.4455 4.55792 5 1.26955e-009 
6.04338 43.5817 1.25094 5 3.32741e-009 
6.04345 46.4455 1.25112 5 2.88946e-009 
8.38168 45.0136 2.07773 5 3.83818e-009 
6.0434 45.0136 3.73113 5 1.86988e-009 
8.38165 43.5817 4.55774 5 2.46037e-009 
8.3817 46.4455 4.55792 5 1.86988e-009 
10.7199 43.5817 2.90433 5 1.18196e-009 
13.0582 43.5817 1.25094 5 3.3589e-009 
13.0582 46.4455 1.25112 5 2.83829e-009 
13.0582 45.0136 3.73113 5 1.76163e-009 
10.72 46.4455 2.90452 5 3.89329e-009 
10.7199 45.0136 0.424327 5 2.58339e-009 
1.36694 47.8774 2.07789 5 1.45064e-009 
1.36699 50.7412 2.07802 5 2.98394e-009 
3.70523 49.3093 2.90466 5 1.27743e-009 
3.7052 47.8774 0.424489 5 2.23796e-009 
3.70526 50.7412 0.424612 5 1.20066e-009 
1.36697 49.3093 4.55807 5 2.47415e-009 
8.38175 47.8774 2.07789 5 4.29089e-009 
6.04347 47.8774 3.7313 5 4.42867e-009 
6.0435 49.3093 1.25125 5 1.55889e-009 
8.38179 50.7412 2.07802 5 3.42878e-009 
6.04353 50.7412 3.73142 5 1.86988e-009 
8.38176 49.3093 4.55807 5 3.34611e-009 
10.72 49.3093 2.90466 5 1.35813e-009 
13.0583 47.8774 3.7313 5 4.22987e-009 
13.0583 49.3093 1.25125 5 1.36009e-009 
13.0583 50.7412 3.73142 5 1.62188e-009 
10.72 47.8774 0.424489 5 2.31866e-009 
10.7201 50.7412 0.424612 5 1.33057e-009 
1.36704 53.605 2.07811 5 1.03835e-007 
3.70529 52.1731 2.90477 5 2.2107e-008 
3.70534 55.0368 2.90485 5 1.03579e-007 
3.70532 53.605 0.424706 5 1.04211e-007 
1.36702 52.1731 4.55818 5 2.25578e-008 
1.36707 55.0368 4.55826 5 1.03803e-007 
6.04354 52.1731 1.25136 5 2.27329e-008 
8.38184 53.605 2.07811 5 1.03725e-007 
6.04357 53.605 3.73152 5 1.06461e-007 
6.0436 55.0368 1.25144 5 1.04658e-007 
8.38182 52.1731 4.55818 5 2.24928e-008 
8.38187 55.0368 4.55826 5 1.03803e-007 
13.0583 52.1731 1.25136 5 2.28313e-008 
10.7201 52.1731 2.90477 5 2.22054e-008 
10.7201 55.0368 2.90485 5 1.03615e-007 
13.0584 53.605 3.73152 5 1.06423e-007 
13.0584 55.0368 1.25144 5 1.04662e-007 
10.7201 53.605 0.424706 5 1.0417e-007 
1.3671 56.4687 2.07818 5 2.13837e-008 
3.70543 59.3325 0.424855 5 2.17409e-008 
1.36716 59.3325 2.07826 5 2.11347e-008 
3.7054 57.9006 2.90492 5 9.81197e-010 
3.70537 56.4687 0.424781 5 2.09693e-008 
1.36713 57.9006 4.55833 5 6.37728e-010 
6.04367 57.9006 1.25152 5 1.90334e-009 
8.3819 56.4687 2.07818 5 2.14939e-008 
6.04364 56.4687 3.73159 5 2.24928e-008 
8.38196 59.3325 2.07826 5 2.08335e-008 
6.04369 59.3325 3.73167 5 2.17055e-008 
8.38193 57.9006 4.55833 5 5.90489e-010 
10.7202 59.3325 0.424855 5 2.17468e-008 
13.0585 57.9006 1.25152 5 1.82855e-009 
13.0584 56.4687 3.73159 5 2.24554e-008 
10.7202 57.9006 2.90492 5 1.01663e-009 
13.0585 59.3325 3.73167 5 2.16208e-008 
10.7202 56.4687 0.424781 5 2.09674e-008 
1.3672 62.1964 2.07834 5 3.07351e-006 
3.70544 60.7644 2.905 5 2.69082e-007 
3.70547 63.6277 2.90508 5 2.78016e-005 
3.70547 62.1964 0.424935 5 3.07628e-006 
1.36718 60.7644 4.55841 5 2.68543e-007 
1.36721 63.6277 4.55849 5 2.78012e-005 
6.04371 60.7644 1.2516 5 2.68927e-007 
6.04374 63.6277 1.25168 5 2.78006e-005 
8.382 62.1964 2.07834 5 3.07412e-006 
6.04373 62.1964 3.73175 5 3.07419e-006 
8.38198 60.7644 4.55841 5 2.69869e-007 
8.38201 63.6277 4.55849 5 2.7802e-005 
10.7202 60.7644 2.905 5 2.69198e-007 
13.0585 60.7644 1.2516 5 2.68968e-007 
13.0585 63.6277 1.25168 5 2.78007e-005 
13.0585 62.1964 3.73175 5 3.07416e-006 
10.7203 63.6277 2.90508 5 2.78017e-005 
10.7203 62.1964 0.424935 5 3.07592e-006 
1.36721 65.0614 2.07843 5 0.000182081 
3.70548 66.4885 2.90517 5 0.0011586 
1.36723 67.9302 2.0785 5 0.00670369 
3.70548 65.0614 0.425018 5 0.000182081 
3.7055 67.9302 0.425088 5 0.00670369 
1.36722 66.4885 4.55858 5 0.0011586 
8.38201 65.0614 2.07843 5 0.000182081 
6.04374 65.0614 3.73184 5 0.000182082 
6.04376 66.4885 1.25177 5 0.0011586 
8.38203 67.9302 2.0785 5 0.00670369 
6.04376 67.9302 3.7319 5 0.00670368 
8.38201 66.4885 4.55858 5 0.0011586 
10.7203 66.4885 2.90517 5 0.0011586 
13.0585 65.0614 3.73184 5 0.000182082 
13.0586 66.4885 1.25177 5 0.0011586 
13.0586 67.9302 3.7319 5 0.00670369 
10.7203 65.0614 0.425018 5 0.000182081 
10.7203 67.9302 0.425088 5 0.00670369 
1.36723 70.7853 2.07854 5 7.9593 
3.7055 69.3315 2.90522 5 0.0114176 
3.7055 72.1952 2.90524 5 32.1808 
3.7055 70.7853 0.425127 5 7.9593 
1.36723 69.3315 4.55863 5 0.0114176 
1.36723 72.1952 4.55865 5 32.1809 
6.04376 69.3315 1.25182 5 0.0114176 
8.38203 70.7853 2.07854 5 7.9593 
6.04377 70.7853 3.73194 5 7.9593 
6.04376 72.1952 1.25184 5 32.1808 
8.38203 69.3315 4.55863 5 0.0114176 
8.38203 72.1952 4.55865 5 32.1809 
13.0586 69.3315 1.25182 5 0.0114176 
10.7203 69.3315 2.90522 5 0.0114176 
10.7203 72.1952 2.90524 5 32.1808 
13.0586 70.7853 3.73194 5 7.9593 
13.0586 72.1952 1.25184 5 32.1808 
10.7203 70.7853 0.425127 5 7.9593 
0.192406 -72.1507 5.3751 5 32.1822 
0.192486 -69.2869 5.37513 5 0.0114734 
2.53067 -70.7407 9.50862 5 7.95973 
2.53067 -72.1507 7.02851 5 32.1819 
2.53069 -69.2869 7.02854 5 0.0114715 
0.192412 -70.7407 7.85521 5 7.95977 
7.2072 -72.1507 5.3751 5 32.1821 
7.20723 -69.2869 5.37513 5 0.0114733 
4.86894 -72.1507 8.6819 5 32.1821 
4.86896 -69.2869 8.68193 5 0.0114717 
4.86894 -70.7407 6.20181 5 7.95978 
7.20722 -70.7407 7.85521 5 7.95977 
9.54547 -72.1507 7.02851 5 32.1819 
9.54547 -70.7407 9.50862 5 7.95973 
9.54549 -69.2869 7.02854 5 0.0114714 
11.8837 -70.7407 6.20181 5 7.95978 
11.8837 -72.1507 8.6819 5 32.1821 
11.8838 -69.2869 8.68193 5 0.0114718 
0.192457 -66.444 5.37519 5 0.00117217 
0.192486 -67.8857 7.85526 5 0.00677855 
2.53074 -65.0168 9.50874 5 0.000186011 
2.5307 -67.8857 9.50866 5 0.0067684 
2.53072 -66.444 7.02859 5 0.00117226 
0.192475 -65.0168 7.85533 5 0.000185943 
7.20726 -66.444 5.37519 5 0.00117217 
7.20723 -67.8857 7.85526 5 0.00677852 
4.86897 -67.8857 6.20185 5 0.0067684 
4.869 -65.0168 6.20193 5 0.000186012 
4.86899 -66.444 8.68199 5 0.00117226 
7.20727 -65.0168 7.85533 5 0.00018594 
9.54552 -66.444 7.02859 5 0.00117226 
9.54554 -65.0168 9.50874 5 0.000186011 
9.5455 -67.8857 9.50866 5 0.0067684 
11.8838 -67.8857 6.20185 5 0.0067684 
11.8838 -65.0168 6.20193 5 0.000186012 
11.8838 -66.444 8.68199 5 0.00117226 
0.192486 -60.7198 5.37538 5 7.48262e-007 
0.192486 -63.5832 5.37528 5 3.01723e-005 
2.53079 -62.1519 9.50883 5 4.36164e-006 
2.53076 -63.5831 7.02867 5 3.0584e-005 
2.5308 -60.7198 7.02877 5 6.54493e-007 
0.192517 -62.1519 7.85543 5 4.34358e-006 
7.2073 -63.5832 5.37528 5 3.01702e-005 
7.20734 -60.7198 5.37538 5 6.35542e-007 
4.86906 -62.1519 6.20201 5 4.36055e-006 
4.86903 -63.5831 8.68208 5 3.0583e-005 
4.86907 -60.7198 8.68218 5 6.45647e-007 
7.20731 -62.1519 7.85543 5 4.33207e-006 
9.54559 -62.1519 9.50883 5 4.35828e-006 
9.5456 -60.7198 7.02877 5 6.46533e-007 
9.54556 -63.5831 7.02867 5 3.05841e-005 
11.8839 -62.1519 6.20201 5 4.36579e-006 
11.8838 -63.5831 8.68208 5 3.05832e-005 
11.8839 -60.7198 8.68218 5 6.53528e-007 
0.192626 -57.8561 5.37547 5 6.94627e-008 
2.53083 -59.288 9.50893 5 1.21636e-007 
2.53088 -56.4242 9.50903 5 2.54403e-008 
2.53086 -57.8561 7.02887 5 4.79098e-008 
0.192626 -56.4242 7.85562 5 2.51057e-008 
0.192626 -59.288 7.85552 5 2.13524e-007 
7.2074 -57.8561 5.37547 5 4.26939e-008 
4.8691 -59.288 6.20212 5 1.12878e-007 
4.86916 -56.4242 6.20221 5 2.37584e-008 
4.86913 -57.8561 8.68228 5 4.12176e-008 
7.20737 -59.288 7.85552 5 1.14944e-007 
7.20743 -56.4242 7.85562 5 2.37279e-008 
9.54568 -56.4242 9.50903 5 2.38656e-008 
9.54563 -59.288 9.50893 5 1.13763e-007 
9.54566 -57.8561 7.02887 5 4.16113e-008 
11.8839 -59.288 6.20212 5 1.19963e-007 
11.884 -56.4242 6.20221 5 2.5333e-008 
11.8839 -57.8561 8.68228 5 4.51542e-008 
0.192654 -54.9923 5.37556 5 1.86386e-008 
2.53095 -53.5604 9.50913 5 6.62332e-009 
2.53093 -54.9923 7.02897 5 1.09622e-008 
2.531 -52.1285 7.02907 5 7.87319e-009 
0.192767 -52.1285 5.37566 5 5.47187e-008 
0.192626 -53.5604 7.85572 5 1.28048e-007 
4.86923 -53.5604 6.20231 5 1.08256e-009 
4.86927 -52.1285 8.68247 5 2.97311e-009 
4.86918 -54.9923 8.68237 5 7.38876e-009 
7.20745 -54.9923 5.37556 5 6.43512e-009 
7.20754 -52.1285 5.37566 5 2.16513e-009 
7.2075 -53.5604 7.85572 5 6.98745e-010 
9.54575 -53.5604 9.50913 5 2.09624e-009 
9.5458 -52.1285 7.02907 5 3.54293e-009 
9.54573 -54.9923 7.02897 5 6.04146e-009 
11.884 -53.5604 6.20231 5 7.57794e-009 
11.884 -54.9923 8.68237 5 1.03412e-008 
11.8841 -52.1285 8.68247 5 6.90971e-009 
2.53105 -50.6966 9.50924 5 7.58286e-009 
2.53116 -47.8328 9.50938 5 7.45394e-009 
2.53111 -49.2647 7.02919 5 7.83579e-009 
0.192894 -47.8328 7.85597 5 1.71242e-008 
0.192907 -49.2647 5.37579 5 1.10827e-007 
0.192767 -50.6966 7.85583 5 4.41361e-008 
4.86931 -50.6966 6.20243 5 4.13342e-009 
7.20764 -49.2647 5.37579 5 2.16513e-009 
4.86944 -47.8328 6.20257 5 2.36196e-009 
4.86937 -49.2647 8.6826 5 3.64529e-009 
7.20758 -50.6966 7.85583 5 2.64244e-009 
7.20769 -47.8328 7.85597 5 5.53485e-009 
9.54585 -50.6966 9.50924 5 1.28431e-009 
9.54591 -49.2647 7.02919 5 4.72392e-009 
9.54596 -47.8328 9.50938 5 2.52336e-009 
11.8841 -50.6966 6.20243 5 1.31876e-008 
11.8842 -47.8328 6.20257 5 7.25318e-009 
11.8842 -49.2647 8.6826 5 1.03788e-008 
0.19296 -46.4009 5.37595 5 1.07607e-008 
0.193102 -43.5371 5.37615 5 1.06122e-007 
2.53129 -44.969 9.50956 5 2.58497e-008 
2.53123 -46.4009 7.02936 5 2.11592e-009 
2.53136 -43.5371 7.02956 5 1.07592e-007 
0.193047 -44.969 7.85616 5 2.8688e-008 
4.86949 -46.4009 8.68276 5 4.82233e-009 
7.20776 -46.4009 5.37595 5 2.16513e-009 
7.2079 -43.5371 5.37615 5 1.05477e-007 
4.86963 -43.5371 8.68297 5 1.0408e-007 
4.86956 -44.969 6.20275 5 2.35754e-008 
7.20783 -44.969 7.85616 5 2.21001e-008 
9.54609 -44.969 9.50956 5 2.53675e-008 
9.54603 -46.4009 7.02936 5 1.86988e-009 
9.54616 -43.5371 7.02956 5 1.06559e-007 
11.8844 -44.969 6.20275 5 2.37427e-008 